HEADER
"PSFversion" "1.00"
"design" "(\"res_inverter_1\" \"res_inverter_1_1_man_tb\" \"schematic\" \"\")"
"simulator" "spectre"
"temperature" "27"
"host" ""
"date" "Oct 28 22:33:06 2022"
"title" ""
"analysisList" "()"
END
