HEADER
"PSFversion" "1.00"
"design" "(\"res_inverter_short\" \"inverter_1_1_man_tb\" \"schematic\" \"\")"
"simulator" "spectre"
"temperature" "27"
"host" ""
"date" "Oct 28 19:55:41 2022"
"title" ""
"analysisList" "()"
END
