HEADER
"PSFversion" "1.00"
"simulator" "spectre"
"version" "18.1.0.464.isr11"
"date" "7:55:44 PM, Fri Oct 28, 2022"
"design" "// Generated for: spectre"
"analysis type" "info.subckts"
"analysis name" "subckts"
"analysis description" "Circuit Information"
"xVecSorted" "unknown"
"tolerance.relative" 0.00100000
TYPE
"subckt" STRUCT(
"subckt_params" STRING *
"subckt_terminals" STRING *
"subckt_instances" STRING *
) PROP(
"key" "sub"
)
VALUE
"group7_enhancement" "subckt" (
""
"INPUT OUTPUT 0 vdd!"
"I8"
)
END
