HEADER
"PSFversion" "1.00"
"Time Stamp" "Oct 28 19:55:41 2022"
TYPE
"variable" STRUCT(
"value" FLOAT DOUBLE
) PROP( "key" "element" )
VALUE
"temp" "variable" ( 27 ) PROP( )
END
