HEADER
"PSFversion" "1.00"
"inverter_pulldown_NFETn" "NCSU_Devices_FreePDK45_NMOS_VTL_spectre"
"R0n" "analogLib_res_spectre"
"INPUTv" ":1v"
"OUTPUTv" ":2v"
