HEADER
"PSFversion" "1.00"
"__NEXT_FILE__" "res_inverter_1_1_man_tb_schematic"
