HEADER
"PSFversion" "1.00"
"design" "(\"inverter_1\" \"inverter_1_1_tb\" \"schematic\" \"\")"
"simulator" "spectre"
"temperature" "27"
"host" ""
"date" "Oct 22 20:45:31 2022"
"title" ""
"analysisList" "()"
END
