HEADER
"PSFversion" "1.00"
"simulator" "spectre"
"version" "18.1.0.464.isr11"
"date" "8:45:34 PM, Sat Oct 22, 2022"
"design" "// Generated for: spectre"
"analysis type" "info.subckts"
"analysis name" "subckts"
"analysis description" "Circuit Information"
"xVecSorted" "unknown"
"tolerance.relative" 0.00100000
TYPE
"subckt" STRUCT(
"subckt_params" STRING *
"subckt_terminals" STRING *
"subckt_instances" STRING *
) PROP(
"key" "sub"
)
VALUE
"inverter_1_1" "subckt" (
""
"INPUT OUTPUT vdd! 0"
"I5"
)
END
