HEADER
"PSFversion" "1.00"
"I5n" "inverter_1_1"
"INPUT_SIGNALn" "analogLib_vpulse_spectre"
"LOAD_CAPACITORn" "analogLib_cap_spectre"
"V0n" "analogLib_vdc_spectre"
