HEADER
"PSFversion" "1.00"
"__NEXT_FILE__" "inverter_1_1_tb"
